##############################################################################
#                                                                            #
# Cr-Fe            # Cr0.5Fe0.5 ht1                                #  529597 #
#                                                                            #
##############################################################################
#                                                                            #
#                           Pearson's Crystal Data                           #
#      Crystal Structure Database for Inorganic Compounds (on DVD)           #
#                              Release 2024/25                               #
#      Editors: Pierre Villars, Karin Cenzual, and Vitaliy Dubenskyy         #
#                                                                            #
#   Copyright (c) ASM International & Material Phases Data System (MPDS),    #
# Switzerland & National Institute for Materials Science (NIMS), Japan, 2024 #
#                   All rights reserved. Version 2024.07                     #
#                                                                            #
#   This copy of Pearson's Crystal Data is licensed to:                      #
#   Hunter College - City University of New York                             #
#                                                                            #
##############################################################################

data_529597
_audit_creation_date                     2025-06-11
_audit_creation_method
;
Pearson's Crystal Data browser
;
#_database_code_PCD                      529597
_database_code_PDF                       04-004-4325

# Entry summary

_chemical_formula_structural             'Cr~0.48~ Fe~0.52~'
_chemical_formula_sum                    'Cr0.48 Fe0.52'
_chemical_name_mineral                   ?
_chemical_compound_source                ?
_chemical_name_structure_type            (Cr~0.49~Fe~0.51~),tP30,136
_chemical_formula_weight                 54.0

# Bibliographic data

_publ_section_title
;
Atom Distributions in Sigma Phases: I. Fe and Cr Atom Distributions in a Binary Sigma Phase Equilibrated at 1063, 1013 and 923 K
;
_journal_coden_ASTM                      ASBSDK
_journal_name_full                       'Acta Crystallogr. B'
_journal_year                            1983
_journal_volume                          39
_journal_page_first                      20
_journal_page_last                       28
_journal_language                        English
loop_
 _publ_author_name
 _publ_author_address
'Yakel H.L. Jr.'
;
Oak Ridge National Laboratory (ORNL)
Metals and Ceramics Division
Oak Ridge
U.S.A. Tennessee
;

# Standardized crystallographic data

_cell_length_a                           8.7961
_cell_length_b                           8.7961
_cell_length_c                           4.5605
_cell_angle_alpha                        90
_cell_angle_beta                         90
_cell_angle_gamma                        90
_cell_volume                             352.85
_cell_formula_units_Z                    30
_space_group_IT_number                   136
_space_group_name_H-M_alt                'P 42/m n m'
loop_
 _space_group_symop_id
 _space_group_symop_operation_xyz
 1 'x, y, z'
 2 '1/2-x, 1/2+y, 1/2-z'
 3 '1/2-x, 1/2+y, 1/2+z'
 4 '-x, -y, -z'
 5 '-x, -y, z'
 6 '1/2-y, 1/2+x, 1/2-z'
 7 '1/2-y, 1/2+x, 1/2+z'
 8 '-y, -x, -z'
 9 '-y, -x, z'
 10 '1/2+x, 1/2-y, 1/2-z'
 11 '1/2+x, 1/2-y, 1/2+z'
 12 'x, y, -z'
 13 '1/2+y, 1/2-x, 1/2-z'
 14 '1/2+y, 1/2-x, 1/2+z'
 15 'y, x, -z'
 16 'y, x, z'
loop_
 _atom_type_symbol
 Cr
 Fe
loop_
 _atom_site_label
 _atom_site_type_symbol
 _atom_site_symmetry_multiplicity
 _atom_site_Wyckoff_symbol
 _atom_site_fract_x
 _atom_site_fract_y
 _atom_site_fract_z
 _atom_site_occupancy
 M(E)1 Cr 8 j 0.31726 0.31726 0.24834 0.65
 M(E)2 Fe 8 j 0.31726 0.31726 0.24834 0.35
 M(D)1 Fe 8 i 0.06608 0.26079 0 0.85
 M(D)2 Cr 8 i 0.06608 0.26079 0 0.15
 M(C)1 Cr 8 i 0.13131 0.53649 0 0.6
 M(C)2 Fe 8 i 0.13131 0.53649 0 0.4
 M(B)1 Cr 4 g 0.39875 0.60125 0 0.72
 M(B)2 Fe 4 g 0.39875 0.60125 0 0.28
 M(A)1 Fe 2 a 0 0 0 0.9
 M(A)2 Cr 2 a 0 0 0 0.1


_exptl_crystal_colour                    ?
_exptl_crystal_density_meas              ?
_exptl_crystal_density_diffrn            7.62
_cell_measurement_temperature            ?
_cell_measurement_radiation              'X-rays, Mo Ka'
_cell_measurement_reflns_used            ?
_diffrn_ambient_temperature              ?
_diffrn_measurement_device               'automatic diffractometer'
_diffrn_measurement_device_type          Picker
_diffrn_radiation_type                   'X-rays, Mo Ka'
_diffrn_reflns_number                    8089
_diffrn_reflns_theta_min                 1.5
_diffrn_reflns_theta_max                 65
_exptl_absorpt_coefficient_mu            ?
_exptl_absorpt_correction_type           yes
_computing_structure_solution            'starting values from the literature'
_refine_ls_number_parameters             ?
_refine_ls_number_reflns                 1419
_refine_ls_R_factor_gt                   0.061
_refine_ls_wR_factor_gt                  0.071

# End of data set 529597
